# Force coefficients
# liftDir     : (0.000000e+00 1.000000e+00 0.000000e+00)
# dragDir     : (1.000000e+00 0.000000e+00 0.000000e+00)
# pitchAxis   : (0.000000e+00 0.000000e+00 1.000000e+00)
# magUInf     : 7.000000e+00
# lRef        : 1.000000e+00
# Aref        : 1.000000e-01
# CofR        : (0.000000e+00 0.000000e+00 0.000000e+00)
# Time        	Cm            	Cd            	Cl            	Cl(f)         	Cl(r)         
10            	-6.772499e-01	-1.356147e+01	1.620967e+00	1.332334e-01	1.487733e+00
20            	6.960316e-02	1.649616e+00	-8.999013e-01	-3.803475e-01	-5.195538e-01
30            	3.708587e+00	-2.215266e+01	4.418375e+00	5.917774e+00	-1.499399e+00
40            	3.255652e+01	-3.536911e+02	3.116711e+01	4.814007e+01	-1.697296e+01
50            	-2.769296e+02	1.295760e+03	-2.797029e+02	-4.167811e+02	1.370782e+02
60            	3.795565e+03	-4.894228e+04	3.689139e+03	5.640134e+03	-1.950996e+03
70            	4.062713e+04	-3.129121e+05	4.031026e+04	6.078226e+04	-2.047200e+04
80            	-6.976680e+08	-2.392267e+09	-7.143963e+08	-1.054866e+09	3.404698e+08
